 
######################################################################
data_CrSbSe3_1_mag_3

# phase info for CrSbSe3_1 mag_3 follows
_pd_phase_name  "CrSbSe3_1 mag_3"
_cell_measurement_temperature  ?
_cell_length_a  9.152089
_cell_length_b  3.784318
_cell_length_c  13.334138
_cell_angle_alpha  90
_cell_angle_beta   90
_cell_angle_gamma  90
_cell_volume  461.82
_exptl_crystal_density_diffrn  0.7478
_symmetry_cell_setting  orthorhombic
_parent_space_group.name_H-M_alt  "P n m a"
_space_group_magn.name_BNS  "P n m' a'"
_space_group.magn_point_group  mm'm'
loop_
    _space_group_symop_magn_operation.id
    _space_group_symop_magn_operation.xyz
     1  x,y,z,+1
     2  1/2-x,1/2+y,1/2+z,+1
     3  x,1/2-y,z,-1
     4  1/2-x,-y,1/2+z,-1
     5  -x,-y,-z,+1
     6  1/2+x,1/2-y,1/2-z,+1
     7  -x,1/2+y,-z,-1
     8  1/2+x,y,1/2-z,-1

# ATOMIC COORDINATES AND DISPLACEMENT PARAMETERS
loop_ 
   _atom_site_label
   _atom_site_type_symbol
   _atom_site_fract_x
   _atom_site_fract_y
   _atom_site_fract_z
   _atom_site_occupancy
   _atom_site_adp_type
   _atom_site_U_iso_or_equiv
   _atom_site_site_symmetry_multiplicity
Cr1    Cr3+ 0.156485    0.25000     0.0439020   1.00000    Uiso 0.00176296 4   

loop_
   _atom_site_moment.label
   _atom_site_moment.crystalaxis_x
   _atom_site_moment.crystalaxis_y
   _atom_site_moment.crystalaxis_z
Cr1    2.637(22)   0.0000      0.0000      

loop_  _atom_type_symbol _atom_type_number_in_cell
  Cr   4

# Note that Z affects _cell_formula_sum and _weight
_cell_formula_units_Z  4
_chemical_formula_sum  Cr
_chemical_formula_weight  52
